 Gaussian 09, Revision A.02,
 Gaussian 09:  EM64L-G09RevA.02 11-Jun-2009

 ----------------------------------
 #HF/6-31G* Opt=ModRed MaxDisk=64GB
 ----------------------------------

 -----------------------------------------------------------------
 12-ethanediol Rotatable Bond Optimization on node7.bme.utexas.edu
 -----------------------------------------------------------------
 Symbolic Z-matrix:
 Charge =  0 Multiplicity = 1

 SCF Done:  E(RHF) =  -228.892571499     A.U. after   11 cycles
 SCF Done:  E(RHF) =  -228.901955553     A.U. after   13 cycles
 SCF Done:  E(RHF) =  -228.912311876     A.U. after   13 cycles
 SCF Done:  E(RHF) =  -228.916216799     A.U. after   11 cycles
 SCF Done:  E(RHF) =  -228.916531991     A.U. after   10 cycles
 SCF Done:  E(RHF) =  -228.916612614     A.U. after    9 cycles
 SCF Done:  E(RHF) =  -228.916724844     A.U. after   10 cycles
 SCF Done:  E(RHF) =  -228.916726987     A.U. after    9 cycles
 Optimization completed.
    -- Stationary point found.

                         Standard orientation:
 ---------------------------------------------------------------------
 Center     Atomic      Atomic             Coordinates (Angstroms)
 Number     Number       Type             X           Y           Z
 ---------------------------------------------------------------------
      1          6           0        0.403141    0.647792    0.260116
      2          6           0       -0.403141   -0.647792    0.260116
      3          1           0        0.072160    2.484222   -0.264829
      4          1           0       -0.072160   -2.484222   -0.264829
      5          8           0       -0.403141    1.665751   -0.275974
      6          8           0        0.403141   -1.665751   -0.275974
      7          1           0        0.730658    0.904314    1.264420
      8          1           0        1.284821    0.489869   -0.352497
      9          1           0       -0.730658   -0.904314    1.264420
     10          1           0       -1.284821   -0.489869   -0.352497
 ---------------------------------------------------------------------

 The electronic state is 1-A.
 Alpha  occ. eigenvalues --  -20.55649 -20.55649 -11.26885 -11.26824  -1.37014
 Alpha  occ. eigenvalues --   -1.35616  -0.99560  -0.83386  -0.72093  -0.69636
 Alpha  occ. eigenvalues --   -0.63106  -0.58983  -0.58228  -0.52945  -0.47589
 Alpha  occ. eigenvalues --   -0.44837  -0.43186
 Alpha virt. eigenvalues --    0.22192   0.23150   0.28832   0.31317   0.32034
 Alpha virt. eigenvalues --    0.34748   0.39442   0.44436   0.44719   0.74630
 Alpha virt. eigenvalues --    0.80452   0.80698   0.85136   0.88225   0.98699

 Mulliken atomic charges:
              1
     1  C   -0.012928
     2  C   -0.012928
     3  H    0.440142
     4  H    0.440142
     5  O   -0.746072
     6  O   -0.746072
     7  H    0.143564
     8  H    0.175294
     9  H    0.143564
    10  H    0.175294
 Sum of Mulliken atomic charges =   0.00000

 Dipole moment (field-independent basis, Debye):
    X=              0.0000    Y=              0.0000    Z=              1.1472  Tot=              1.1472
 Quadrupole moment (field-independent basis, Debye-Ang):
   XX=            -26.0471   YY=            -17.8389   ZZ=            -25.4901
   XY=              6.1648   XZ=              0.0000   YZ=              0.0000

 Normal termination of Gaussian 09 at Fri Sep  3 17:54:42 2010.
