 Gaussian 09, Revision A.02,
 Gaussian 09:  EM64L-G09RevA.02 11-Jun-2009

 --------------------------------------------------------------
 #M06L/6-31G** SP SCF=(qc,maxcycle=800) Guess=Indo MaxDisk=64GB
 --------------------------------------------------------------

 -------------------------------------------------------------------
 12-ethanediol Rotatable Bond SP Calculation on node7.bme.utexas.edu
 -------------------------------------------------------------------
 Symbolic Z-matrix:
 Charge =  0 Multiplicity = 1

                         Standard orientation:
 ---------------------------------------------------------------------
 Center     Atomic      Atomic             Coordinates (Angstroms)
 Number     Number       Type             X           Y           Z
 ---------------------------------------------------------------------
      1          6           0       -0.408555    0.643721    0.234947
      2          6           0        0.408555   -0.643721    0.234947
      3          1           0       -0.066036    2.496548   -0.221966
      4          1           0        0.066036   -2.496548   -0.221966
      5          8           0        0.408555    1.678113   -0.250635
      6          8           0       -0.408555   -1.678113   -0.250635
      7          1           0       -1.265099    0.492147   -0.414080
      8          1           0       -0.776244    0.874531    1.231446
      9          1           0        1.265099   -0.492147   -0.414080
     10          1           0        0.776244   -0.874531    1.231446
 ---------------------------------------------------------------------

 SCF Done:  E(RM06L) =  -230.212980734     a.u. after   10 cycles

 The electronic state is 1-A.
 Alpha  occ. eigenvalues --  -18.97634 -18.97634 -10.09850 -10.09837  -0.99867
 Alpha  occ. eigenvalues --   -0.98838  -0.69990  -0.56996  -0.49542  -0.46704
 Alpha  occ. eigenvalues --   -0.40916  -0.37885  -0.36498  -0.31165  -0.28293
 Alpha  occ. eigenvalues --   -0.22684  -0.22168
 Alpha virt. eigenvalues --    0.07466   0.09400   0.13846   0.15416   0.15838
 Alpha virt. eigenvalues --    0.17312   0.20682   0.24153   0.25451   0.53792
 Alpha virt. eigenvalues --    0.56151   0.56204   0.62146   0.63385   0.73881

 Mulliken atomic charges:
              1
     1  C    0.031194
     2  C    0.031194
     3  H    0.332319
     4  H    0.332319
     5  O   -0.584373
     6  O   -0.584373
     7  H    0.123072
     8  H    0.097788
     9  H    0.123072
    10  H    0.097788
 Sum of Mulliken atomic charges =   0.00000

 Dipole moment (field-independent basis, Debye):
    X=              0.0000    Y=              0.0000    Z=              0.8781  Tot=              0.8781
 Quadrupole moment (field-independent basis, Debye-Ang):
   XX=            -25.8930   YY=            -17.0665   ZZ=            -25.2277
   XY=             -5.4626   XZ=              0.0000   YZ=              0.0000

 Normal termination of Gaussian 09 at Fri Sep  3 18:20:39 2010.
