 Gaussian 09, Revision A.02,
 Gaussian 09:  EM64L-G09RevA.02 11-Jun-2009

 --------------------------------------------------------------
 #M06L/6-31G** SP SCF=(qc,maxcycle=800) Guess=Indo MaxDisk=64GB
 --------------------------------------------------------------

 -------------------------------------------------------------------
 12-ethanediol Rotatable Bond SP Calculation on node7.bme.utexas.edu
 -------------------------------------------------------------------
 Symbolic Z-matrix:
 Charge =  0 Multiplicity = 1

                         Standard orientation:
 ---------------------------------------------------------------------
 Center     Atomic      Atomic             Coordinates (Angstroms)
 Number     Number       Type             X           Y           Z
 ---------------------------------------------------------------------
      1          6           0       -0.429680    0.623579    0.069804
      2          6           0        0.429680   -0.623579    0.069804
      3          1           0       -0.068690    2.525587   -0.033356
      4          1           0        0.068690   -2.525587   -0.033356
      5          8           0        0.429680    1.722518   -0.077625
      6          8           0       -0.429680   -1.722518   -0.077625
      7          1           0       -1.131666    0.558761   -0.756915
      8          1           0       -1.001184    0.682361    0.992446
      9          1           0        1.131666   -0.558761   -0.756915
     10          1           0        1.001184   -0.682361    0.992446
 ---------------------------------------------------------------------

 SCF Done:  E(RM06L) =  -230.216552566     a.u. after   10 cycles

 The electronic state is 1-A.
 Alpha  occ. eigenvalues --  -18.97800 -18.97800 -10.09831 -10.09816  -1.00042
 Alpha  occ. eigenvalues --   -0.99060  -0.70176  -0.56927  -0.49958  -0.45295
 Alpha  occ. eigenvalues --   -0.43108  -0.37878  -0.35721  -0.31335  -0.28333
 Alpha  occ. eigenvalues --   -0.22692  -0.22583
 Alpha virt. eigenvalues --    0.06985   0.10165   0.13981   0.14654   0.16124
 Alpha virt. eigenvalues --    0.18592   0.20953   0.22574   0.25200   0.52058
 Alpha virt. eigenvalues --    0.57377   0.57630   0.59718   0.65255   0.70989

 Mulliken atomic charges:
              1
     1  C    0.036849
     2  C    0.036849
     3  H    0.334766
     4  H    0.334766
     5  O   -0.584486
     6  O   -0.584486
     7  H    0.109990
     8  H    0.102881
     9  H    0.109990
    10  H    0.102881
 Sum of Mulliken atomic charges =   0.00000

 Dipole moment (field-independent basis, Debye):
    X=              0.0000    Y=              0.0000    Z=              0.3902  Tot=              0.3902
 Quadrupole moment (field-independent basis, Debye-Ang):
   XX=            -26.0871   YY=            -17.3090   ZZ=            -25.0385
   XY=             -5.8465   XZ=              0.0000   YZ=              0.0000

 Normal termination of Gaussian 09 at Fri Sep  3 18:12:57 2010.
