 Gaussian 09, Revision A.02,
 Gaussian 09:  EM64L-G09RevA.02 11-Jun-2009

 --------------------------------------------------------------
 #M06L/6-31G** SP SCF=(qc,maxcycle=800) Guess=Indo MaxDisk=64GB
 --------------------------------------------------------------

 -------------------------------------------------------------------
 12-ethanediol Rotatable Bond SP Calculation on node7.bme.utexas.edu
 -------------------------------------------------------------------
 Symbolic Z-matrix:
 Charge =  0 Multiplicity = 1

                         Standard orientation:
 ---------------------------------------------------------------------
 Center     Atomic      Atomic             Coordinates (Angstroms)
 Number     Number       Type             X           Y           Z
 ---------------------------------------------------------------------
      1          6           0       -0.074320    0.765840    0.618886
      2          6           0        0.074320   -0.765840    0.618886
      3          1           0       -0.010458    2.217283   -0.638982
      4          1           0        0.010458   -2.217283   -0.638982
      5          8           0        0.074320    1.275260   -0.672496
      6          8           0       -0.074320   -1.275260   -0.672496
      7          1           0       -1.057653    1.028348    1.004854
      8          1           0        0.660847    1.188323    1.300778
      9          1           0        1.057653   -1.028348    1.004854
     10          1           0       -0.660847   -1.188323    1.300778
 ---------------------------------------------------------------------

 SCF Done:  E(RM06L) =  -230.204583078     a.u. after   11 cycles

 The electronic state is 1-A.
 Alpha  occ. eigenvalues --  -18.97084 -18.97084 -10.10161 -10.10150  -0.99972
 Alpha  occ. eigenvalues --   -0.98153  -0.69951  -0.56843  -0.49745  -0.44669
 Alpha  occ. eigenvalues --   -0.42945  -0.38189  -0.35907  -0.29570  -0.28399
 Alpha  occ. eigenvalues --   -0.22939  -0.20730
 Alpha virt. eigenvalues --    0.06519   0.11638   0.12049   0.12755   0.17298
 Alpha virt. eigenvalues --    0.17710   0.21811   0.22112   0.27445   0.54413
 Alpha virt. eigenvalues --    0.57117   0.57259   0.58470   0.65102   0.72394

 Mulliken atomic charges:
              1
     1  C    0.039861
     2  C    0.039861
     3  H    0.330783
     4  H    0.330783
     5  O   -0.555459
     6  O   -0.555459
     7  H    0.092799
     8  H    0.092016
     9  H    0.092799
    10  H    0.092016
 Sum of Mulliken atomic charges =   0.00000

 Dipole moment (field-independent basis, Debye):
    X=              0.0000    Y=              0.0000    Z=              2.0849  Tot=              2.0849
 Quadrupole moment (field-independent basis, Debye-Ang):
   XX=            -25.2357   YY=            -14.6958   ZZ=            -26.3461
   XY=             -0.6859   XZ=              0.0000   YZ=              0.0000

 Normal termination of Gaussian 09 at Fri Sep  3 18:42:20 2010.
