 Gaussian 09, Revision A.02,
 Gaussian 09:  EM64L-G09RevA.02 11-Jun-2009

 --------------------------------------------------------------
 #M06L/6-31G** SP SCF=(qc,maxcycle=800) Guess=Indo MaxDisk=64GB
 --------------------------------------------------------------

 -------------------------------------------------------------------
 12-ethanediol Rotatable Bond SP Calculation on node7.bme.utexas.edu
 -------------------------------------------------------------------
 Symbolic Z-matrix:
 Charge =  0 Multiplicity = 1

                         Standard orientation:
 ---------------------------------------------------------------------
 Center     Atomic      Atomic             Coordinates (Angstroms)
 Number     Number       Type             X           Y           Z
 ---------------------------------------------------------------------
      1          6           0        0.354013    0.673872    0.407494
      2          6           0       -0.354013   -0.673872    0.407494
      3          1           0        0.143069    2.355805   -0.536582
      4          1           0       -0.143069   -2.355805   -0.536582
      5          8           0       -0.354013    1.558163   -0.423555
      6          8           0        0.354013   -1.558163   -0.423555
      7          1           0        0.393872    1.071071    1.419614
      8          1           0        1.371302    0.526550    0.060448
      9          1           0       -0.393872   -1.071071    1.419614
     10          1           0       -1.371302   -0.526550    0.060448
 ---------------------------------------------------------------------

 SCF Done:  E(RM06L) =  -230.212837605     a.u. after   10 cycles

 The electronic state is 1-A.
 Alpha  occ. eigenvalues --  -18.97407 -18.97407 -10.09921 -10.09908  -0.99759
 Alpha  occ. eigenvalues --   -0.98537  -0.70154  -0.56983  -0.49158  -0.47438
 Alpha  occ. eigenvalues --   -0.39577  -0.37976  -0.37407  -0.31012  -0.28111
 Alpha  occ. eigenvalues --   -0.22743  -0.21919
 Alpha virt. eigenvalues --    0.08495   0.08898   0.14020   0.14671   0.15409
 Alpha virt. eigenvalues --    0.17855   0.20734   0.22585   0.25193   0.54429
 Alpha virt. eigenvalues --    0.54724   0.56529   0.61632   0.65991   0.70784

 Mulliken atomic charges:
              1
     1  C    0.035735
     2  C    0.035735
     3  H    0.330723
     4  H    0.330723
     5  O   -0.580272
     6  O   -0.580272
     7  H    0.090644
     8  H    0.123169
     9  H    0.090644
    10  H    0.123169
 Sum of Mulliken atomic charges =   0.00000

 Dipole moment (field-independent basis, Debye):
    X=              0.0000    Y=              0.0000    Z=              0.9445  Tot=              0.9445
 Quadrupole moment (field-independent basis, Debye-Ang):
   XX=            -25.3759   YY=            -17.3939   ZZ=            -25.2234
   XY=              5.2328   XZ=              0.0000   YZ=              0.0000

 Normal termination of Gaussian 09 at Fri Sep  3 17:54:05 2010.
