 Gaussian 09, Revision A.02,
 Gaussian 09:  EM64L-G09RevA.02 11-Jun-2009

 --------------------------------------------------------------
 #M06L/6-31G** SP SCF=(qc,maxcycle=800) Guess=Indo MaxDisk=64GB
 --------------------------------------------------------------

 -------------------------------------------------------------------
 12-ethanediol Rotatable Bond SP Calculation on node7.bme.utexas.edu
 -------------------------------------------------------------------
 Symbolic Z-matrix:
 Charge =  0 Multiplicity = 1

                         Standard orientation:
 ---------------------------------------------------------------------
 Center     Atomic      Atomic             Coordinates (Angstroms)
 Number     Number       Type             X           Y           Z
 ---------------------------------------------------------------------
      1          6           0       -0.194940    0.732875    0.581177
      2          6           0        0.194940   -0.732875    0.581177
      3          1           0       -0.103191    2.220285   -0.642746
      4          1           0        0.103191   -2.220285   -0.642746
      5          8           0        0.194940    1.322443   -0.623533
      6          8           0       -0.194940   -1.322443   -0.623533
      7          1           0       -1.273624    0.810890    0.704748
      8          1           0        0.273566    1.213155    1.439200
      9          1           0        1.273624   -0.810890    0.704748
     10          1           0       -0.273566   -1.213155    1.439200
 ---------------------------------------------------------------------

 SCF Done:  E(RM06L) =  -230.212777720     a.u. after   10 cycles

 The electronic state is 1-A.
 Alpha  occ. eigenvalues --  -18.97159 -18.97159 -10.10078 -10.10064  -1.00002
 Alpha  occ. eigenvalues --   -0.98253  -0.70368  -0.56777  -0.49403  -0.46712
 Alpha  occ. eigenvalues --   -0.40923  -0.38228  -0.36673  -0.30344  -0.28021
 Alpha  occ. eigenvalues --   -0.22232  -0.21962
 Alpha virt. eigenvalues --    0.07536   0.10732   0.12357   0.14857   0.16712
 Alpha virt. eigenvalues --    0.18949   0.19953   0.22250   0.23820   0.54020
 Alpha virt. eigenvalues --    0.55792   0.56620   0.59504   0.66893   0.68024

 Mulliken atomic charges:
              1
     1  C    0.040074
     2  C    0.040074
     3  H    0.331745
     4  H    0.331745
     5  O   -0.560048
     6  O   -0.560048
     7  H    0.098397
     8  H    0.089831
     9  H    0.098397
    10  H    0.089831
 Sum of Mulliken atomic charges =   0.00000

 Dipole moment (field-independent basis, Debye):
    X=              0.0000    Y=              0.0000    Z=              1.8230  Tot=              1.8230
 Quadrupole moment (field-independent basis, Debye-Ang):
   XX=            -25.3150   YY=            -15.3711   ZZ=            -25.9528
   XY=             -2.7035   XZ=              0.0000   YZ=              0.0000

 Normal termination of Gaussian 09 at Fri Sep  3 18:48:43 2010.
