 Gaussian 09, Revision A.02,
 Gaussian 09:  EM64L-G09RevA.02 11-Jun-2009

 ----------------------------------
 #HF/6-31G* Opt=ModRed MaxDisk=64GB
 ----------------------------------

 -----------------------------------------------------------------
 12-ethanediol Rotatable Bond Optimization on node7.bme.utexas.edu
 -----------------------------------------------------------------
 Symbolic Z-matrix:
 Charge =  0 Multiplicity = 1

 SCF Done:  E(RHF) =  -228.895953001     A.U. after   11 cycles
 SCF Done:  E(RHF) =  -228.904787290     A.U. after   10 cycles
 SCF Done:  E(RHF) =  -228.912883831     A.U. after   12 cycles
 SCF Done:  E(RHF) =  -228.916044468     A.U. after   12 cycles
 SCF Done:  E(RHF) =  -228.916197741     A.U. after   10 cycles
 SCF Done:  E(RHF) =  -228.916234403     A.U. after    9 cycles
 SCF Done:  E(RHF) =  -228.916298089     A.U. after   10 cycles
 SCF Done:  E(RHF) =  -228.916306801     A.U. after    9 cycles
 Optimization completed.
    -- Stationary point found.

                         Standard orientation:
 ---------------------------------------------------------------------
 Center     Atomic      Atomic             Coordinates (Angstroms)
 Number     Number       Type             X           Y           Z
 ---------------------------------------------------------------------
      1          6           0        0.645614    0.385937   -0.405105
      2          6           0       -0.645614    0.385937    0.405105
      3          1           0        2.368627   -0.496813   -0.280285
      4          1           0       -2.368627   -0.496813    0.280285
      5          8           0        1.598682   -0.401999    0.262258
      6          8           0       -1.598682   -0.401999   -0.262258
      7          1           0        0.427689   -0.004788   -1.393415
      8          1           0        1.018020    1.401970   -0.515755
      9          1           0       -0.427689   -0.004788    1.393415
     10          1           0       -1.018020    1.401970    0.515755
 ---------------------------------------------------------------------

 The electronic state is 1-A.
 Alpha  occ. eigenvalues --  -20.55471 -20.55471 -11.26937 -11.26876  -1.36916
 Alpha  occ. eigenvalues --   -1.35354  -0.99717  -0.83312  -0.71893  -0.70007
 Alpha  occ. eigenvalues --   -0.62111  -0.59386  -0.58469  -0.52742  -0.47389
 Alpha  occ. eigenvalues --   -0.44700  -0.43353
 Alpha virt. eigenvalues --    0.22840   0.22923   0.28944   0.30993   0.31729
 Alpha virt. eigenvalues --    0.35230   0.39452   0.41424   0.45205   0.75592
 Alpha virt. eigenvalues --    0.80326   0.81419   0.85809   0.87626   0.96038

 Mulliken atomic charges:
              1
     1  C   -0.010785
     2  C   -0.010785
     3  H    0.439372
     4  H    0.439372
     5  O   -0.742738
     6  O   -0.742738
     7  H    0.174029
     8  H    0.140122
     9  H    0.174029
    10  H    0.140122
 Sum of Mulliken atomic charges =   0.00000

 Dipole moment (field-independent basis, Debye):
    X=              0.0000    Y=              1.2924    Z=              0.0000  Tot=              1.2924
 Quadrupole moment (field-independent basis, Debye-Ang):
   XX=            -18.7281   YY=            -25.4787   ZZ=            -24.8837
   XY=              0.0000   XZ=             -6.3873   YZ=              0.0000

 Normal termination of Gaussian 09 at Fri Sep  3 18:57:39 2010.
