 Gaussian 09, Revision A.02,
 Gaussian 09:  EM64L-G09RevA.02 11-Jun-2009

 --------------------------------------------------------------
 #M06L/6-31G** SP SCF=(qc,maxcycle=800) Guess=Indo MaxDisk=64GB
 --------------------------------------------------------------

 -------------------------------------------------------------------
 12-ethanediol Rotatable Bond SP Calculation on node7.bme.utexas.edu
 -------------------------------------------------------------------
 Symbolic Z-matrix:
 Charge =  0 Multiplicity = 1

                         Standard orientation:
 ---------------------------------------------------------------------
 Center     Atomic      Atomic             Coordinates (Angstroms)
 Number     Number       Type             X           Y           Z
 ---------------------------------------------------------------------
      1          6           0        0.280458    0.701252    0.523262
      2          6           0       -0.280458   -0.701252    0.523262
      3          1           0        0.209636    2.209163   -0.690751
      4          1           0       -0.209636   -2.209163   -0.690751
      5          8           0       -0.280458    1.413052   -0.544781
      6          8           0        0.280458   -1.413052   -0.544781
      7          1           0        0.039906    1.177670    1.472709
      8          1           0        1.362249    0.644112    0.436718
      9          1           0       -0.039906   -1.177670    1.472709
     10          1           0       -1.362249   -0.644112    0.436718
 ---------------------------------------------------------------------

 SCF Done:  E(RM06L) =  -230.215802987     a.u. after   12 cycles

 The electronic state is 1-A.
 Alpha  occ. eigenvalues --  -18.97244 -18.97244 -10.09965 -10.09950  -0.99883
 Alpha  occ. eigenvalues --   -0.98330  -0.70433  -0.56850  -0.48459  -0.48355
 Alpha  occ. eigenvalues --   -0.38658  -0.38417  -0.38012  -0.30852  -0.27801
 Alpha  occ. eigenvalues --   -0.22636  -0.22022
 Alpha virt. eigenvalues --    0.08478   0.09619   0.13068   0.16008   0.16338
 Alpha virt. eigenvalues --    0.17216   0.20739   0.22438   0.22850   0.54003
 Alpha virt. eigenvalues --    0.54768   0.56881   0.60339   0.67194   0.68203

 Mulliken atomic charges:
              1
     1  C    0.041735
     2  C    0.041735
     3  H    0.331755
     4  H    0.331755
     5  O   -0.571509
     6  O   -0.571509
     7  H    0.088545
     8  H    0.109475
     9  H    0.088545
    10  H    0.109475
 Sum of Mulliken atomic charges =   0.00000

 Dipole moment (field-independent basis, Debye):
    X=              0.0000    Y=              0.0000    Z=              1.2032  Tot=              1.2032
 Quadrupole moment (field-independent basis, Debye-Ang):
   XX=            -25.0866   YY=            -17.2397   ZZ=            -25.2193
   XY=              4.6807   XZ=              0.0000   YZ=              0.0000

 Normal termination of Gaussian 09 at Fri Sep  3 17:47:30 2010.
