 Gaussian 09, Revision A.02,
 Gaussian 09:  EM64L-G09RevA.02 11-Jun-2009

 --------------------------------------------------------------
 #M06L/6-31G** SP SCF=(qc,maxcycle=800) Guess=Indo MaxDisk=64GB
 --------------------------------------------------------------

 -------------------------------------------------------------------
 12-ethanediol Rotatable Bond SP Calculation on node7.bme.utexas.edu
 -------------------------------------------------------------------
 Symbolic Z-matrix:
 Charge =  0 Multiplicity = 1

                         Standard orientation:
 ---------------------------------------------------------------------
 Center     Atomic      Atomic             Coordinates (Angstroms)
 Number     Number       Type             X           Y           Z
 ---------------------------------------------------------------------
      1          6           0       -0.294045    0.696082    0.508405
      2          6           0        0.294045   -0.696082    0.508405
      3          1           0       -0.207627    2.221625   -0.684579
      4          1           0        0.207627   -2.221625   -0.684579
      5          8           0        0.294045    1.434936   -0.527415
      6          8           0       -0.294045   -1.434936   -0.527415
      7          1           0       -1.370308    0.619516    0.382471
      8          1           0       -0.096175    1.165306    1.471004
      9          1           0        1.370308   -0.619516    0.382471
     10          1           0        0.096175   -1.165306    1.471004
 ---------------------------------------------------------------------

 SCF Done:  E(RM06L) =  -230.215679918     a.u. after   11 cycles

 The electronic state is 1-A.
 Alpha  occ. eigenvalues --  -18.97268 -18.97268 -10.09952 -10.09937  -0.99857
 Alpha  occ. eigenvalues --   -0.98356  -0.70412  -0.56877  -0.48653  -0.48167
 Alpha  occ. eigenvalues --   -0.38624  -0.38358  -0.38046  -0.30893  -0.27859
 Alpha  occ. eigenvalues --   -0.22654  -0.22032
 Alpha virt. eigenvalues --    0.08600   0.09440   0.13238   0.15889   0.15916
 Alpha virt. eigenvalues --    0.17553   0.20495   0.22328   0.23358   0.54069
 Alpha virt. eigenvalues --    0.54602   0.56929   0.60552   0.67070   0.68448

 Mulliken atomic charges:
              1
     1  C    0.041698
     2  C    0.041698
     3  H    0.331527
     4  H    0.331527
     5  O   -0.573470
     6  O   -0.573470
     7  H    0.111777
     8  H    0.088468
     9  H    0.111777
    10  H    0.088468
 Sum of Mulliken atomic charges =   0.00000

 Dipole moment (field-independent basis, Debye):
    X=              0.0000    Y=              0.0000    Z=              1.1154  Tot=              1.1154
 Quadrupole moment (field-independent basis, Debye-Ang):
   XX=            -25.0936   YY=            -17.4351   ZZ=            -25.1492
   XY=             -4.8525   XZ=              0.0000   YZ=              0.0000

 Normal termination of Gaussian 09 at Fri Sep  3 18:56:49 2010.
