 Gaussian 09, Revision A.02,
 Gaussian 09:  EM64L-G09RevA.02 11-Jun-2009

 --------------------------------------------------------------
 #M06L/6-31G** SP SCF=(qc,maxcycle=800) Guess=Indo MaxDisk=64GB
 --------------------------------------------------------------

 -------------------------------------------------------------------
 12-ethanediol Rotatable Bond SP Calculation on node7.bme.utexas.edu
 -------------------------------------------------------------------
 Symbolic Z-matrix:
 Charge =  0 Multiplicity = 1

                         Standard orientation:
 ---------------------------------------------------------------------
 Center     Atomic      Atomic             Coordinates (Angstroms)
 Number     Number       Type             X           Y           Z
 ---------------------------------------------------------------------
      1          6           0        0.177033    0.738911    0.589283
      2          6           0       -0.177033   -0.738911    0.589283
      3          1           0        0.080904    2.221395   -0.638077
      4          1           0       -0.080904   -2.221395   -0.638077
      5          8           0       -0.177033    1.310956   -0.634430
      6          8           0        0.177033   -1.310956   -0.634430
      7          1           0       -0.333797    1.214723    1.425139
      8          1           0        1.248080    0.845857    0.752682
      9          1           0        0.333797   -1.214723    1.425139
     10          1           0       -1.248080   -0.845857    0.752682
 ---------------------------------------------------------------------

 SCF Done:  E(RM06L) =  -230.211579279     a.u. after   10 cycles

 The electronic state is 1-A.
 Alpha  occ. eigenvalues --  -18.97149 -18.97148 -10.10098 -10.10083  -1.00010
 Alpha  occ. eigenvalues --   -0.98239  -0.70317  -0.56782  -0.49518  -0.46353
 Alpha  occ. eigenvalues --   -0.41312  -0.38232  -0.36469  -0.30211  -0.28118
 Alpha  occ. eigenvalues --   -0.22350  -0.21736
 Alpha virt. eigenvalues --    0.07352   0.10910   0.12278   0.14442   0.16841
 Alpha virt. eigenvalues --    0.19092   0.19821   0.22290   0.24398   0.54073
 Alpha virt. eigenvalues --    0.56003   0.56639   0.59350   0.66594   0.68407

 Mulliken atomic charges:
              1
     1  C    0.039831
     2  C    0.039831
     3  H    0.331619
     4  H    0.331619
     5  O   -0.558575
     6  O   -0.558575
     7  H    0.090238
     8  H    0.096887
     9  H    0.090238
    10  H    0.096887
 Sum of Mulliken atomic charges =   0.00000

 Dipole moment (field-independent basis, Debye):
    X=              0.0000    Y=              0.0000    Z=              1.8965  Tot=              1.8965
 Quadrupole moment (field-independent basis, Debye-Ang):
   XX=            -25.3320   YY=            -15.1559   ZZ=            -26.0489
   XY=              2.3054   XZ=              0.0000   YZ=              0.0000

 Normal termination of Gaussian 09 at Fri Sep  3 18:26:35 2010.
