 Gaussian 09, Revision A.02,
 Gaussian 09:  EM64L-G09RevA.02 11-Jun-2009

 ----------------------------------
 #HF/6-31G* Opt=ModRed MaxDisk=64GB
 ----------------------------------

 -----------------------------------------------------------------
 12-ethanediol Rotatable Bond Optimization on node7.bme.utexas.edu
 -----------------------------------------------------------------
 Symbolic Z-matrix:
 Charge =  0 Multiplicity = 1

 SCF Done:  E(RHF) =  -228.883929614     A.U. after   12 cycles
 SCF Done:  E(RHF) =  -228.893413094     A.U. after   13 cycles
 SCF Done:  E(RHF) =  -228.903152001     A.U. after   11 cycles
 SCF Done:  E(RHF) =  -228.906124304     A.U. after   13 cycles
 SCF Done:  E(RHF) =  -228.906333879     A.U. after   10 cycles
 SCF Done:  E(RHF) =  -228.906343278     A.U. after    9 cycles
 SCF Done:  E(RHF) =  -228.906346322     A.U. after    8 cycles
 SCF Done:  E(RHF) =  -228.906348415     A.U. after    8 cycles
 SCF Done:  E(RHF) =  -228.906350467     A.U. after    9 cycles
 Optimization completed.
    -- Stationary point found.

                         Standard orientation:
 ---------------------------------------------------------------------
 Center     Atomic      Atomic             Coordinates (Angstroms)
 Number     Number       Type             X           Y           Z
 ---------------------------------------------------------------------
      1          6           0        0.054268    0.769013    0.621655
      2          6           0       -0.054268   -0.769013    0.621655
      3          1           0        0.006924    2.216437   -0.640567
      4          1           0       -0.006924   -2.216437   -0.640567
      5          8           0       -0.054268    1.272644   -0.675931
      6          8           0        0.054268   -1.272644   -0.675931
      7          1           0       -0.720851    1.175581    1.267840
      8          1           0        1.011870    1.058592    1.050247
      9          1           0        0.720851   -1.175581    1.267840
     10          1           0       -1.011870   -1.058592    1.050247
 ---------------------------------------------------------------------

 The electronic state is 1-A.
 Alpha  occ. eigenvalues --  -20.54943 -20.54942 -11.27274 -11.27218  -1.37107
 Alpha  occ. eigenvalues --   -1.34642  -0.99499  -0.83039  -0.72619  -0.66775
 Alpha  occ. eigenvalues --   -0.64977  -0.59291  -0.58044  -0.50919  -0.47669
 Alpha  occ. eigenvalues --   -0.45483  -0.41369
 Alpha virt. eigenvalues --    0.20962   0.25495   0.26807   0.28409   0.33179
 Alpha virt. eigenvalues --    0.36011   0.38963   0.42164   0.49933   0.76504
 Alpha virt. eigenvalues --    0.77756   0.80871   0.83690   0.90603   0.97162

 Mulliken atomic charges:
              1
     1  C   -0.004785
     2  C   -0.004785
     3  H    0.437199
     4  H    0.437199
     5  O   -0.711438
     6  O   -0.711438
     7  H    0.139247
     8  H    0.139777
     9  H    0.139247
    10  H    0.139777
 Sum of Mulliken atomic charges =   0.00000

 Dipole moment (field-independent basis, Debye):
    X=              0.0000    Y=              0.0000    Z=              2.7360  Tot=              2.7360
 Quadrupole moment (field-independent basis, Debye-Ang):
   XX=            -25.4122   YY=            -14.7488   ZZ=            -26.7368
   XY=              0.5868   XZ=              0.0000   YZ=              0.0000

 Normal termination of Gaussian 09 at Fri Sep  3 18:27:28 2010.
