 Gaussian 09, Revision A.02,
 Gaussian 09:  EM64L-G09RevA.02 11-Jun-2009

 ----------------------------------
 #HF/6-31G* Opt=ModRed MaxDisk=64GB
 ----------------------------------

 -----------------------------------------------------------------
 12-ethanediol Rotatable Bond Optimization on node7.bme.utexas.edu
 -----------------------------------------------------------------
 Symbolic Z-matrix:
 Charge =  0 Multiplicity = 1

 SCF Done:  E(RHF) =  -228.895788175     A.U. after   11 cycles
 SCF Done:  E(RHF) =  -228.904409700     A.U. after   13 cycles
 SCF Done:  E(RHF) =  -228.912850278     A.U. after   11 cycles
 SCF Done:  E(RHF) =  -228.914513562     A.U. after   11 cycles
 SCF Done:  E(RHF) =  -228.914713935     A.U. after   10 cycles
 SCF Done:  E(RHF) =  -228.914751061     A.U. after   13 cycles
 SCF Done:  E(RHF) =  -228.914846943     A.U. after   10 cycles
 SCF Done:  E(RHF) =  -228.914860521     A.U. after    9 cycles
 SCF Done:  E(RHF) =  -228.914861527     A.U. after    9 cycles
 Optimization completed.
    -- Stationary point found.

                         Standard orientation:
 ---------------------------------------------------------------------
 Center     Atomic      Atomic             Coordinates (Angstroms)
 Number     Number       Type             X           Y           Z
 ---------------------------------------------------------------------
      1          6           0        0.177033    0.738911    0.589283
      2          6           0       -0.177033   -0.738911    0.589283
      3          1           0        0.080904    2.221395   -0.638077
      4          1           0       -0.080904   -2.221395   -0.638077
      5          8           0       -0.177033    1.310956   -0.634430
      6          8           0        0.177033   -1.310956   -0.634430
      7          1           0       -0.333797    1.214723    1.425139
      8          1           0        1.248080    0.845857    0.752682
      9          1           0        0.333797   -1.214723    1.425139
     10          1           0       -1.248080   -0.845857    0.752682
 ---------------------------------------------------------------------

 The electronic state is 1-A.
 Alpha  occ. eigenvalues --  -20.55064 -20.55064 -11.27157 -11.27094  -1.37190
 Alpha  occ. eigenvalues --   -1.34806  -1.00036  -0.82917  -0.72349  -0.68813
 Alpha  occ. eigenvalues --   -0.63093  -0.59680  -0.58183  -0.51805  -0.47567
 Alpha  occ. eigenvalues --   -0.44499  -0.42664
 Alpha virt. eigenvalues --    0.21614   0.24921   0.27225   0.30333   0.32574
 Alpha virt. eigenvalues --    0.35858   0.38641   0.41920   0.45043   0.75582
 Alpha virt. eigenvalues --    0.80167   0.81452   0.82921   0.90847   0.92240

 Mulliken atomic charges:
              1
     1  C   -0.001135
     2  C   -0.001135
     3  H    0.438750
     4  H    0.438750
     5  O   -0.717616
     6  O   -0.717616
     7  H    0.136520
     8  H    0.143481
     9  H    0.136520
    10  H    0.143481
 Sum of Mulliken atomic charges =   0.00000

 Dipole moment (field-independent basis, Debye):
    X=              0.0000    Y=              0.0000    Z=              2.4853  Tot=              2.4853
 Quadrupole moment (field-independent basis, Debye-Ang):
   XX=            -25.5274   YY=            -15.3281   ZZ=            -26.3920
   XY=              2.6259   XZ=              0.0000   YZ=              0.0000

 Normal termination of Gaussian 09 at Fri Sep  3 18:21:24 2010.
