 Gaussian 03, Revision C.02,
 Gaussian 03:  IA32L-G03RevC.02 12-Jun-2004

 ---------------------------------------------
 #P HF/6-31G(2d) MaxDisk=96000MW Pop=SaveMixed
 ---------------------------------------------

 -------------------------------------------------------------
 12-ethanediol Gaussian SP Calculation on node2.bme.utexas.edu
 -------------------------------------------------------------
 Symbolic Z-matrix:
 Charge =  0 Multiplicity = 1

                         Standard orientation:
 ---------------------------------------------------------------------
 Center     Atomic     Atomic              Coordinates (Angstroms)
 Number     Number      Type              X           Y           Z
 ---------------------------------------------------------------------
    1          6             0        0.280458    0.701252    0.523262
    2          6             0       -0.280458   -0.701252    0.523262
    3          1             0        0.209636    2.209163   -0.690751
    4          1             0       -0.209636   -2.209163   -0.690751
    5          8             0       -0.280458    1.413052   -0.544781
    6          8             0        0.280458   -1.413052   -0.544781
    7          1             0        0.039906    1.177670    1.472709
    8          1             0        1.362249    0.644112    0.436718
    9          1             0       -0.039906   -1.177670    1.472709
   10          1             0       -1.362249   -0.644112    0.436718
 ---------------------------------------------------------------------

 SCF Done:  E(RHF) =  -228.926202374     A.U. after    6 cycles

 The electronic state is 1-A.
 Alpha  occ. eigenvalues --  -20.54246 -20.54246 -11.27041 -11.26974  -1.37016
 Alpha  occ. eigenvalues --   -1.34942  -1.00005  -0.82821  -0.71107  -0.70885
 Alpha  occ. eigenvalues --   -0.60675  -0.60122  -0.58783  -0.52594  -0.47062
 Alpha  occ. eigenvalues --   -0.43949  -0.43853
 Alpha virt. eigenvalues --    0.22490   0.23888   0.28230   0.31637   0.33018
 Alpha virt. eigenvalues --    0.33311   0.39120   0.40617   0.41074   0.67161
 Alpha virt. eigenvalues --    0.71099   0.71144   0.72920   0.80710   0.83785

 Mulliken atomic charges:
              1
     1  C   -0.055783
     2  C   -0.055783
     3  H    0.432707
     4  H    0.432707
     5  O   -0.709904
     6  O   -0.709904
     7  H    0.159080
     8  H    0.173899
     9  H    0.159080
    10  H    0.173899
 Sum of Mulliken charges=   0.00000

 Dipole moment (field-independent basis, Debye):
    X=     0.0000    Y=     0.0000    Z=     1.5038  Tot=     1.5038
 Quadrupole moment (field-independent basis, Debye-Ang):
   XX=   -25.0230   YY=   -17.9916   ZZ=   -25.1791
   XY=     4.8320   XZ=     0.0000   YZ=     0.0000

 Summary of Natural Population Analysis:

                                       Natural Population
                Natural  -----------------------------------------------
    Atom  No    Charge         Core      Valence    Rydberg      Total
 -----------------------------------------------------------------------
      C    1   -0.05127      1.99949     4.02804    0.02375     6.05127
      C    2   -0.05127      1.99949     4.02804    0.02375     6.05127
      H    3    0.48158      0.00000     0.51717    0.00125     0.51842
      H    4    0.48158      0.00000     0.51717    0.00125     0.51842
      O    5   -0.79320      1.99981     6.77188    0.02151     8.79320
      O    6   -0.79320      1.99981     6.77188    0.02151     8.79320
      H    7    0.17677      0.00000     0.82275    0.00049     0.82323
      H    8    0.18612      0.00000     0.81299    0.00089     0.81388
      H    9    0.17677      0.00000     0.82275    0.00049     0.82323
      H   10    0.18612      0.00000     0.81299    0.00089     0.81388
 =======================================================================
   * Total *    0.00000      7.99859    25.90564    0.09577    34.00000

 Normal termination of Gaussian 03 at Tue Mar 16 17:00:47 2010.
