 Gaussian 09, Revision A.02,
 Gaussian 09:  EM64L-G09RevA.02 11-Jun-2009

 --------------------------------------------------
 #MP2/Aug-CC-pVTZ Sp Polar Density=MP2 MaxDisk=66GB
 --------------------------------------------------

 --------------------------------------------------------------
 12-ethanediol Gaussian SP Calculation on node12.bme.utexas.edu
 --------------------------------------------------------------
 Symbolic Z-matrix:
 Charge =  0 Multiplicity = 1

                         Standard orientation:
 ---------------------------------------------------------------------
 Center     Atomic      Atomic             Coordinates (Angstroms)
 Number     Number       Type             X           Y           Z
 ---------------------------------------------------------------------
      1          6           0        0.280458    0.701252    0.523262
      2          6           0       -0.280458   -0.701252    0.523262
      3          1           0        0.209636    2.209163   -0.690751
      4          1           0       -0.209636   -2.209163   -0.690751
      5          8           0       -0.280458    1.413052   -0.544781
      6          8           0        0.280458   -1.413052   -0.544781
      7          1           0        0.039906    1.177670    1.472709
      8          1           0        1.362249    0.644112    0.436718
      9          1           0       -0.039906   -1.177670    1.472709
     10          1           0       -1.362249   -0.644112    0.436718
 ---------------------------------------------------------------------

 SCF Done:  E(RHF) =  -229.029284865     A.U. after   11 cycles
 E2 =    -0.8476340561D+00 EUMP2 =    -0.22987691892128D+03
 E2 =    -0.8476340561D+00 EUMP2 =    -0.22987691892128D+03

 The electronic state is 1-A.
 Alpha  occ. eigenvalues --  -20.55353 -20.55353 -11.27148 -11.27081  -1.37767
 Alpha  occ. eigenvalues --   -1.35731  -1.00454  -0.83332  -0.71749  -0.71519
 Alpha  occ. eigenvalues --   -0.61297  -0.60755  -0.59509  -0.53338  -0.47647
 Alpha  occ. eigenvalues --   -0.44806  -0.44688
 Alpha virt. eigenvalues --    0.02933   0.03610   0.04243   0.04422   0.06117
 Alpha virt. eigenvalues --    0.06427   0.09765   0.11126   0.11460   0.11741
 Alpha virt. eigenvalues --    0.13440   0.14098   0.14526   0.16829   0.18650

 Mulliken atomic charges:
              1
     1  C   -0.297603
     2  C   -0.297603
     3  H    0.129810
     4  H    0.129810
     5  O   -0.460046
     6  O   -0.460046
     7  H    0.288255
     8  H    0.339584
     9  H    0.288255
    10  H    0.339584
 Sum of Mulliken atomic charges =   0.00000

 Dipole moment (field-independent basis, Debye):
    X=              0.0000    Y=              0.0000    Z=              1.5340  Tot=              1.5340
 Quadrupole moment (field-independent basis, Debye-Ang):
   XX=            -25.9780   YY=            -18.9866   ZZ=            -26.1925
   XY=              4.8977   XZ=              0.0000   YZ=              0.0000

  Exact polarizability:  34.335   0.682  40.264   0.000   0.000  37.026
 Approx polarizability:  29.134   0.785  29.917   0.000   0.000  29.653

 Normal termination of Gaussian 09 at Wed Jun 16 15:08:47 2010.
