 Gaussian 09, Revision A.02,
 Gaussian 09:  EM64L-G09RevA.02 11-Jun-2009

 ------------------------------------------
 #MP2/6-311G** Sp Density=MP2 MaxDisk=500GB
 ------------------------------------------

 -------------------------------------------------------------
 12-ethanediol Gaussian SP Calculation on node9.bme.utexas.edu
 -------------------------------------------------------------
 Symbolic Z-matrix:
 Charge =  0 Multiplicity = 1

                         Standard orientation:
 ---------------------------------------------------------------------
 Center     Atomic      Atomic             Coordinates (Angstroms)
 Number     Number       Type             X           Y           Z
 ---------------------------------------------------------------------
      1          6           0        0.280458    0.701252    0.523262
      2          6           0       -0.280458   -0.701252    0.523262
      3          1           0        0.209636    2.209163   -0.690751
      4          1           0       -0.209636   -2.209163   -0.690751
      5          8           0       -0.280458    1.413052   -0.544781
      6          8           0        0.280458   -1.413052   -0.544781
      7          1           0        0.039906    1.177670    1.472709
      8          1           0        1.362249    0.644112    0.436718
      9          1           0       -0.039906   -1.177670    1.472709
     10          1           0       -1.362249   -0.644112    0.436718
 ---------------------------------------------------------------------

 SCF Done:  E(RHF) =  -228.996576071     A.U. after   11 cycles
 E2 =    -0.7015560185D+00 EUMP2 =    -0.22969813208917D+03

 The electronic state is 1-A.
 Alpha  occ. eigenvalues --  -20.53987 -20.53987 -11.26867 -11.26800  -1.37141
 Alpha  occ. eigenvalues --   -1.35075  -1.00140  -0.83027  -0.71260  -0.71042
 Alpha  occ. eigenvalues --   -0.60820  -0.60317  -0.58958  -0.52687  -0.47187
 Alpha  occ. eigenvalues --   -0.44274  -0.44160
 Alpha virt. eigenvalues --    0.15466   0.17089   0.19322   0.21732   0.23126
 Alpha virt. eigenvalues --    0.24182   0.35935   0.38094   0.38173   0.49844
 Alpha virt. eigenvalues --    0.54660   0.59014   0.62424   0.63874   0.70457

 Mulliken atomic charges:
              1
     1  C   -0.001847
     2  C   -0.001847
     3  H    0.235284
     4  H    0.235284
     5  O   -0.398208
     6  O   -0.398208
     7  H    0.076201
     8  H    0.088569
     9  H    0.076201
    10  H    0.088569
 Sum of Mulliken atomic charges =   0.00000

 Dipole moment (field-independent basis, Debye):
    X=              0.0000    Y=              0.0000    Z=              1.3845  Tot=              1.3845
 Quadrupole moment (field-independent basis, Debye-Ang):
   XX=            -25.6285   YY=            -18.1341   ZZ=            -25.7013
   XY=              4.7172   XZ=              0.0000   YZ=              0.0000

 Normal termination of Gaussian 09 at Thu Jun  3 18:21:37 2010.
