 Gaussian 03, Revision C.02,
 Gaussian 03:  IA32L-G03RevC.02 12-Jun-2004

 -------------------
 #opt HF/6-31G* freq
 -------------------

 -----------------------------------------------------------
 12-ethanediol Gaussian Optimization on node2.bme.utexas.edu
 -----------------------------------------------------------
 Symbolic Z-matrix:
 Charge =  0 Multiplicity = 1

 SCF Done:  E(RHF) =  -228.916347217     A.U. after   11 cycles
 SCF Done:  E(RHF) =  -228.919217806     A.U. after   11 cycles
 SCF Done:  E(RHF) =  -228.919522468     A.U. after   10 cycles
 SCF Done:  E(RHF) =  -228.919599647     A.U. after   10 cycles
 SCF Done:  E(RHF) =  -228.919681368     A.U. after    9 cycles
 SCF Done:  E(RHF) =  -228.919724867     A.U. after   10 cycles
 SCF Done:  E(RHF) =  -228.919736352     A.U. after   10 cycles
 SCF Done:  E(RHF) =  -228.919737925     A.U. after    8 cycles
 Optimization completed.
    -- Stationary point found.
 Normal termination of Gaussian 03 at Tue Mar 16 16:59:45 2010.

 ---------------------------------------------------------------
 #N Geom=AllCheck Guess=Read SCRF=Check GenChk RHF/6-31G(d) Freq
 ---------------------------------------------------------------

 12-ethanediol Gaussian Optimization on node2.bme.utexas.edu
 -----------------------------------------------------------
 Redundant internal coordinates taken from checkpoint file:
 12-ethanediol-opt.chk
 Charge =  0 Multiplicity = 1

                         Standard orientation:
 ---------------------------------------------------------------------
 Center     Atomic     Atomic              Coordinates (Angstroms)
 Number     Number      Type              X           Y           Z
 ---------------------------------------------------------------------
    1          6             0        0.280458    0.701252    0.523262
    2          6             0       -0.280458   -0.701252    0.523262
    3          1             0        0.209636    2.209163   -0.690751
    4          1             0       -0.209636   -2.209163   -0.690751
    5          8             0       -0.280458    1.413052   -0.544781
    6          8             0        0.280458   -1.413052   -0.544781
    7          1             0        0.039906    1.177670    1.472709
    8          1             0        1.362249    0.644112    0.436718
    9          1             0       -0.039906   -1.177670    1.472709
   10          1             0       -1.362249   -0.644112    0.436718
 ---------------------------------------------------------------------

 SCF Done:  E(RHF) =  -228.919737925     A.U. after    1 cycles

 The electronic state is 1-A.
 Alpha  occ. eigenvalues --  -20.55237 -20.55237 -11.26995 -11.26929  -1.37073
 Alpha  occ. eigenvalues --   -1.35012  -1.00182  -0.83018  -0.71212  -0.71014
 Alpha  occ. eigenvalues --   -0.60754  -0.60268  -0.58844  -0.52536  -0.47164
 Alpha  occ. eigenvalues --   -0.44056  -0.43961
 Alpha virt. eigenvalues --    0.22483   0.23865   0.28267   0.31625   0.33090
 Alpha virt. eigenvalues --    0.33416   0.40548   0.41306   0.42194   0.75246
 Alpha virt. eigenvalues --    0.81606   0.82018   0.82220   0.89334   0.93782

 Mulliken atomic charges:
              1
     1  C   -0.000693
     2  C   -0.000693
     3  H    0.440689
     4  H    0.440689
     5  O   -0.733150
     6  O   -0.733150
     7  H    0.136911
     8  H    0.156243
     9  H    0.136911
    10  H    0.156243
 Sum of Mulliken charges=   0.00000

 Dipole moment (field-independent basis, Debye):
    X=     0.0000    Y=     0.0000    Z=     1.6860  Tot=     1.6860
 Quadrupole moment (field-independent basis, Debye-Ang):
   XX=   -25.3032   YY=   -17.6307   ZZ=   -25.4644
   XY=     5.2245   XZ=     0.0000   YZ=     0.0000

  Exact polarizability:  25.311   1.346  30.074   0.000   0.000  26.840
 Approx polarizability:  22.670   0.823  23.388   0.000   0.000  22.975

                     1                      2                      3
                     A                      A                      B
 Frequencies --   176.8626               207.5464               214.2385
 Red. masses --     3.4641                 1.0855                 1.0875
 Frc consts  --     0.0638                 0.0275                 0.0294
 IR Inten    --     2.6132               135.7175               186.7508
 Raman Activ --     0.2292                 4.6241                 2.5171

                     4                      5                      6
                     A                      B                      A
 Frequencies --   363.4457               540.7031               958.4859
 Red. masses --     2.6941                 2.2848                 2.5334
 Frc consts  --     0.2097                 0.3936                 1.3713
 IR Inten    --     0.2582                18.8898                 9.7178
 Raman Activ --     0.2219                 0.0460                 9.5653

                     7                      8                      9
                     B                      A                      B
 Frequencies --  1007.2976              1154.5622              1205.1469
 Red. masses --     1.8506                 1.5213                 2.5255
 Frc consts  --     1.1063                 1.1948                 2.1611
 IR Inten    --    54.9631                91.4599                10.0845
 Raman Activ --     2.7307                 0.7296                 8.4248

                    10                     11                     12
                     A                      B                      A
 Frequencies --  1234.5941              1329.4585              1378.0334
 Red. masses --     3.0894                 1.1774                 1.1853
 Frc consts  --     2.7744                 1.2261                 1.3262
 IR Inten    --    67.3991                34.9172                47.5376
 Raman Activ --     5.5936                 0.5549                 6.0328

                    13                     14                     15
                     B                      A                      B
 Frequencies --  1426.0676              1448.0254              1580.5565
 Red. masses --     1.1988                 1.1504                 1.3295
 Frc consts  --     1.4364                 1.4212                 1.9568
 IR Inten    --    72.2557                38.5033                14.0443
 Raman Activ --     7.5542                19.0548                 0.8613

                    16                     17                     18
                     A                      B                      A
 Frequencies --  1642.2044              1664.1598              1666.7670
 Red. masses --     1.6049                 1.0906                 1.1128
 Frc consts  --     2.5500                 1.7795                 1.8214
 IR Inten    --     1.8065                 7.5464                 4.2338
 Raman Activ --     3.3358                16.7203                 3.0241

                    19                     20                     21
                     B                      A                      A
 Frequencies --  3169.2072              3190.7714              3219.1576
 Red. masses --     1.0629                 1.0630                 1.1031
 Frc consts  --     6.2901                 6.3764                 6.7352
 IR Inten    --    24.7078               122.8846                26.5039
 Raman Activ --    46.7640               164.1736               125.1510

                    22                     23                     24
                     B                      B                      A
 Frequencies --  3236.0237              4121.9591              4122.4335
 Red. masses --     1.1013                 1.0670                 1.0672
 Frc consts  --     6.7950                10.6809                10.6853
 IR Inten    --   122.1151                87.9268                 8.7872
 Raman Activ --     5.7855                32.0249               154.0438

 - Thermochemistry -
 -------------------
 Temperature   298.150 Kelvin.  Pressure   1.00000 Atm.
 Atom  1 has atomic number  6 and mass  12.00000

 Molecular mass:    62.03678 amu.
 Principal axes and moments of inertia in atomic units:
                           1         2         3
     EIGENVALUES --   105.69580 347.75725 396.97006
           X           -0.06340   0.00000   0.99799
           Y            0.99799   0.00000   0.06340
           Z            0.00000   1.00000   0.00000
 This molecule is an asymmetric top.
 Rotational symmetry number  2.
 Rotational temperatures (Kelvin)      0.81946     0.24906     0.21819
 Rotational constants (GHZ):          17.07486     5.18966     4.54629
 Zero-point vibrational energy     240794.6 (Joules/Mol)
                                   57.55128 (Kcal/Mol)
 Warning -- explicit consideration of   5 degrees of freedom as
           vibrations may cause significant error
 Vibrational temperatures:    254.47   298.61   308.24   522.92   777.95
          (Kelvin)           1379.05  1449.27  1661.16  1733.94  1776.30
                             1912.79  1982.68  2051.79  2083.38  2274.07
                             2362.76  2394.35  2398.10  4559.78  4590.80
                             4631.64  4655.91  5930.57  5931.26

 Zero-point correction=                           0.091714 (Hartree/Particle)
 Thermal correction to Energy=                    0.096946
 Thermal correction to Enthalpy=                  0.097891
 Thermal correction to Gibbs Free Energy=         0.064800
 Sum of electronic and zero-point Energies=           -228.828024
 Sum of electronic and thermal Energies=              -228.822791
 Sum of electronic and thermal Enthalpies=            -228.821847
 Sum of electronic and thermal Free Energies=         -228.854937

                     E (Thermal)             CV                S
                      KCal/Mol        Cal/Mol-Kelvin    Cal/Mol-Kelvin
 Total                   60.835             16.224             69.644
 Electronic               0.000              0.000              0.000
 Translational            0.889              2.981             38.295
 Rotational               0.889              2.981             22.816
 Vibrational             59.057             10.262              8.533
 Vibration  1             0.628              1.871              2.361
 Vibration  2             0.641              1.829              2.065
 Vibration  3             0.644              1.819              2.007
 Vibration  4             0.737              1.548              1.107
 Vibration  5             0.896              1.160              0.564

 Normal termination of Gaussian 03 at Tue Mar 16 17:00:29 2010.
