 Gaussian 09, Revision A.02,
 Gaussian 09:  EM64L-G09RevA.02 11-Jun-2009

 ----------------------------------
 #HF/6-31G* Opt=ModRed MaxDisk=32GB
 ----------------------------------

 -----------------------------------------------------------------
 12-ethanediol Rotatable Bond Optimization on node9.bme.utexas.edu
 -----------------------------------------------------------------
 Symbolic Z-matrix:
 Charge =  0 Multiplicity = 1

 SCF Done:  E(RHF) =  -228.895912833     A.U. after   11 cycles
 SCF Done:  E(RHF) =  -228.905497670     A.U. after   12 cycles
 SCF Done:  E(RHF) =  -228.914734920     A.U. after   10 cycles
 SCF Done:  E(RHF) =  -228.917144653     A.U. after   11 cycles
 SCF Done:  E(RHF) =  -228.917343077     A.U. after   10 cycles
 SCF Done:  E(RHF) =  -228.917351160     A.U. after    9 cycles
 SCF Done:  E(RHF) =  -228.917351912     A.U. after    8 cycles
 SCF Done:  E(RHF) =  -228.917352425     A.U. after    8 cycles
 SCF Done:  E(RHF) =  -228.917352766     A.U. after    8 cycles
 Optimization completed.
    -- Stationary point found.

                         Standard orientation:
 ---------------------------------------------------------------------
 Center     Atomic      Atomic             Coordinates (Angstroms)
 Number     Number       Type             X           Y           Z
 ---------------------------------------------------------------------
      1          6           0       -0.408555    0.643721    0.234947
      2          6           0        0.408555   -0.643721    0.234947
      3          1           0       -0.066036    2.496548   -0.221966
      4          1           0        0.066036   -2.496548   -0.221966
      5          8           0        0.408555    1.678113   -0.250635
      6          8           0       -0.408555   -1.678113   -0.250635
      7          1           0       -1.265099    0.492147   -0.414080
      8          1           0       -0.776244    0.874531    1.231446
      9          1           0        1.265099   -0.492147   -0.414080
     10          1           0        0.776244   -0.874531    1.231446
 ---------------------------------------------------------------------

 The electronic state is 1-A.
 Alpha  occ. eigenvalues --  -20.55683 -20.55683 -11.26882 -11.26821  -1.37037
 Alpha  occ. eigenvalues --   -1.35657  -0.99579  -0.83386  -0.72143  -0.69531
 Alpha  occ. eigenvalues --   -0.63353  -0.58879  -0.58215  -0.52987  -0.47647
 Alpha  occ. eigenvalues --   -0.44819  -0.43213
 Alpha virt. eigenvalues --    0.22093   0.23203   0.28834   0.31417   0.31973
 Alpha virt. eigenvalues --    0.34783   0.39408   0.44468   0.44893   0.74341
 Alpha virt. eigenvalues --    0.80210   0.80859   0.84828   0.88609   0.98610

 Mulliken atomic charges:
              1
     1  C   -0.011913
     2  C   -0.011913
     3  H    0.440547
     4  H    0.440547
     5  O   -0.746529
     6  O   -0.746529
     7  H    0.173686
     8  H    0.144208
     9  H    0.173686
    10  H    0.144208
 Sum of Mulliken atomic charges =   0.00000

 Dipole moment (field-independent basis, Debye):
    X=              0.0000    Y=              0.0000    Z=              1.1060  Tot=              1.1060
 Quadrupole moment (field-independent basis, Debye-Ang):
   XX=            -26.1083   YY=            -17.8581   ZZ=            -25.4646
   XY=             -6.2145   XZ=              0.0000   YZ=              0.0000

 Normal termination of Gaussian 09 at Tue Sep 14 14:18:46 2010.
