 Gaussian 09, Revision A.02,
 Gaussian 09:  EM64L-G09RevA.02 11-Jun-2009

 ----------------------------------
 #HF/6-31G* Opt=ModRed MaxDisk=32GB
 ----------------------------------

 -----------------------------------------------------------------
 12-ethanediol Rotatable Bond Optimization on node9.bme.utexas.edu
 -----------------------------------------------------------------
 Symbolic Z-matrix:
 Charge =  0 Multiplicity = 1

 SCF Done:  E(RHF) =  -228.898563411     A.U. after   11 cycles
 SCF Done:  E(RHF) =  -228.908193105     A.U. after   10 cycles
 SCF Done:  E(RHF) =  -228.918551634     A.U. after   10 cycles
 SCF Done:  E(RHF) =  -228.921121575     A.U. after   11 cycles
 SCF Done:  E(RHF) =  -228.921282822     A.U. after    9 cycles
 SCF Done:  E(RHF) =  -228.921294351     A.U. after    9 cycles
 SCF Done:  E(RHF) =  -228.921296751     A.U. after    8 cycles
 SCF Done:  E(RHF) =  -228.921299858     A.U. after    9 cycles
 SCF Done:  E(RHF) =  -228.921300086     A.U. after    7 cycles
 Optimization completed.
    -- Stationary point found.

                         Standard orientation:
 ---------------------------------------------------------------------
 Center     Atomic      Atomic             Coordinates (Angstroms)
 Number     Number       Type             X           Y           Z
 ---------------------------------------------------------------------
      1          6           0        0.427811    0.625562    0.095959
      2          6           0       -0.427811   -0.625562    0.095959
      3          1           0        0.065507    2.524830   -0.051274
      4          1           0       -0.065507   -2.524830   -0.051274
      5          8           0       -0.427811    1.719234   -0.106113
      6          8           0        0.427811   -1.719234   -0.106113
      7          1           0        0.972238    0.710963    1.032739
      8          1           0        1.153262    0.542060   -0.708313
      9          1           0       -0.972238   -0.710963    1.032739
     10          1           0       -1.153262   -0.542060   -0.708313
 ---------------------------------------------------------------------

 The electronic state is 1-A.
 Alpha  occ. eigenvalues --  -20.55845 -20.55844 -11.26861 -11.26796  -1.37207
 Alpha  occ. eigenvalues --   -1.35868  -0.99800  -0.83312  -0.72508  -0.68411
 Alpha  occ. eigenvalues --   -0.65274  -0.58245  -0.58228  -0.53258  -0.47695
 Alpha  occ. eigenvalues --   -0.44837  -0.43466
 Alpha virt. eigenvalues --    0.21676   0.23571   0.28791   0.31134   0.31712
 Alpha virt. eigenvalues --    0.36143   0.38975   0.43402   0.46038   0.73054
 Alpha virt. eigenvalues --    0.79449   0.81715   0.84284   0.90517   0.96157

 Mulliken atomic charges:
              1
     1  C   -0.004742
     2  C   -0.004742
     3  H    0.442988
     4  H    0.442988
     5  O   -0.747523
     6  O   -0.747523
     7  H    0.148386
     8  H    0.160891
     9  H    0.148386
    10  H    0.160891
 Sum of Mulliken atomic charges =   0.00000

 Dipole moment (field-independent basis, Debye):
    X=              0.0000    Y=              0.0000    Z=              0.6164  Tot=              0.6164
 Quadrupole moment (field-independent basis, Debye-Ang):
   XX=            -26.3065   YY=            -18.1609   ZZ=            -25.2622
   XY=              6.5891   XZ=              0.0000   YZ=              0.0000

 Normal termination of Gaussian 09 at Tue Sep 14 14:07:50 2010.
