 Gaussian 09, Revision A.02,
 Gaussian 09:  EM64L-G09RevA.02 11-Jun-2009

 ----------------------------------
 #HF/6-31G* Opt=ModRed MaxDisk=32GB
 ----------------------------------

 -----------------------------------------------------------------
 12-ethanediol Rotatable Bond Optimization on node9.bme.utexas.edu
 -----------------------------------------------------------------
 Symbolic Z-matrix:
 Charge =  0 Multiplicity = 1

 SCF Done:  E(RHF) =  -228.901192311     A.U. after   11 cycles
 SCF Done:  E(RHF) =  -228.909682337     A.U. after   10 cycles
 SCF Done:  E(RHF) =  -228.917434769     A.U. after   11 cycles
 SCF Done:  E(RHF) =  -228.919358193     A.U. after   11 cycles
 SCF Done:  E(RHF) =  -228.919507245     A.U. after   10 cycles
 SCF Done:  E(RHF) =  -228.919537711     A.U. after    9 cycles
 SCF Done:  E(RHF) =  -228.919591142     A.U. after    9 cycles
 SCF Done:  E(RHF) =  -228.919616337     A.U. after   10 cycles
 SCF Done:  E(RHF) =  -228.919619061     A.U. after    9 cycles
 Optimization completed.
    -- Stationary point found.

                         Standard orientation:
 ---------------------------------------------------------------------
 Center     Atomic      Atomic             Coordinates (Angstroms)
 Number     Number       Type             X           Y           Z
 ---------------------------------------------------------------------
      1          6           0       -0.294045    0.696082    0.508405
      2          6           0        0.294045   -0.696082    0.508405
      3          1           0       -0.207627    2.221625   -0.684579
      4          1           0        0.207627   -2.221625   -0.684579
      5          8           0        0.294045    1.434936   -0.527415
      6          8           0       -0.294045   -1.434936   -0.527415
      7          1           0       -1.370308    0.619516    0.382471
      8          1           0       -0.096175    1.165306    1.471004
      9          1           0        1.370308   -0.619516    0.382471
     10          1           0        0.096175   -1.165306    1.471004
 ---------------------------------------------------------------------

 The electronic state is 1-A.
 Alpha  occ. eigenvalues --  -20.55270 -20.55270 -11.26979 -11.26913  -1.37042
 Alpha  occ. eigenvalues --   -1.35054  -1.00152  -0.83062  -0.71419  -0.70805
 Alpha  occ. eigenvalues --   -0.60993  -0.59999  -0.58829  -0.52582  -0.47223
 Alpha  occ. eigenvalues --   -0.44132  -0.43923
 Alpha virt. eigenvalues --    0.22586   0.23723   0.28444   0.31493   0.32697
 Alpha virt. eigenvalues --    0.33885   0.40055   0.41201   0.42771   0.75289
 Alpha virt. eigenvalues --    0.81353   0.82027   0.82648   0.89201   0.93944

 Mulliken atomic charges:
              1
     1  C   -0.001267
     2  C   -0.001267
     3  H    0.440608
     4  H    0.440608
     5  O   -0.735249
     6  O   -0.735249
     7  H    0.158780
     8  H    0.137129
     9  H    0.158780
    10  H    0.137129
 Sum of Mulliken atomic charges =   0.00000

 Dipole moment (field-independent basis, Debye):
    X=              0.0000    Y=              0.0000    Z=              1.5804  Tot=              1.5804
 Quadrupole moment (field-independent basis, Debye-Ang):
   XX=            -25.3132   YY=            -17.8630   ZZ=            -25.3826
   XY=             -5.4214   XZ=              0.0000   YZ=              0.0000

 Normal termination of Gaussian 09 at Tue Sep 14 14:52:25 2010.
