 Gaussian 09, Revision A.02,
 Gaussian 09:  EM64L-G09RevA.02 11-Jun-2009

 ----------------------------------
 #HF/6-31G* Opt=ModRed MaxDisk=32GB
 ----------------------------------

 -----------------------------------------------------------------
 12-ethanediol Rotatable Bond Optimization on node9.bme.utexas.edu
 -----------------------------------------------------------------
 Symbolic Z-matrix:
 Charge =  0 Multiplicity = 1

 SCF Done:  E(RHF) =  -228.893783044     A.U. after   11 cycles
 SCF Done:  E(RHF) =  -228.903156626     A.U. after   10 cycles
 SCF Done:  E(RHF) =  -228.913428417     A.U. after   11 cycles
 SCF Done:  E(RHF) =  -228.915956771     A.U. after   11 cycles
 SCF Done:  E(RHF) =  -228.916155269     A.U. after   10 cycles
 SCF Done:  E(RHF) =  -228.916169197     A.U. after    9 cycles
 SCF Done:  E(RHF) =  -228.916174998     A.U. after    9 cycles
 SCF Done:  E(RHF) =  -228.916186050     A.U. after   10 cycles
 SCF Done:  E(RHF) =  -228.916186484     A.U. after    8 cycles
 Optimization completed.
    -- Stationary point found.

                         Standard orientation:
 ---------------------------------------------------------------------
 Center     Atomic      Atomic             Coordinates (Angstroms)
 Number     Number       Type             X           Y           Z
 ---------------------------------------------------------------------
      1          6           0       -0.194940    0.732875    0.581177
      2          6           0        0.194940   -0.732875    0.581177
      3          1           0       -0.103191    2.220285   -0.642746
      4          1           0        0.103191   -2.220285   -0.642746
      5          8           0        0.194940    1.322443   -0.623533
      6          8           0       -0.194940   -1.322443   -0.623533
      7          1           0       -1.273624    0.810890    0.704748
      8          1           0        0.273566    1.213155    1.439200
      9          1           0        1.273624   -0.810890    0.704748
     10          1           0       -0.273566   -1.213155    1.439200
 ---------------------------------------------------------------------

 The electronic state is 1-A.
 Alpha  occ. eigenvalues --  -20.55086 -20.55086 -11.27131 -11.27067  -1.37188
 Alpha  occ. eigenvalues --   -1.34837  -1.00101  -0.82909  -0.72216  -0.69223
 Alpha  occ. eigenvalues --   -0.62675  -0.59748  -0.58301  -0.51959  -0.47477
 Alpha  occ. eigenvalues --   -0.44335  -0.42958
 Alpha virt. eigenvalues --    0.21747   0.24776   0.27349   0.30777   0.32427
 Alpha virt. eigenvalues --    0.35474   0.39085   0.41843   0.44209   0.75462
 Alpha virt. eigenvalues --    0.80513   0.81567   0.82761   0.90355   0.92545

 Mulliken atomic charges:
              1
     1  C   -0.000816
     2  C   -0.000816
     3  H    0.439129
     4  H    0.439129
     5  O   -0.719572
     6  O   -0.719572
     7  H    0.144984
     8  H    0.136274
     9  H    0.144984
    10  H    0.136274
 Sum of Mulliken atomic charges =   0.00000

 Dipole moment (field-independent basis, Debye):
    X=              0.0000    Y=              0.0000    Z=              2.3983  Tot=              2.3983
 Quadrupole moment (field-independent basis, Debye-Ang):
   XX=            -25.5121   YY=            -15.5681   ZZ=            -26.2858
   XY=             -3.0599   XZ=              0.0000   YZ=              0.0000

 Normal termination of Gaussian 09 at Tue Sep 14 14:45:47 2010.
