 Gaussian 09, Revision A.02,
 Gaussian 09:  EM64L-G09RevA.02 11-Jun-2009

 ----------------------------------
 #HF/6-31G* Opt=ModRed MaxDisk=32GB
 ----------------------------------

 -----------------------------------------------------------------
 12-ethanediol Rotatable Bond Optimization on node9.bme.utexas.edu
 -----------------------------------------------------------------
 Symbolic Z-matrix:
 Charge =  0 Multiplicity = 1

 SCF Done:  E(RHF) =  -228.901524537     A.U. after   11 cycles
 SCF Done:  E(RHF) =  -228.910952505     A.U. after   12 cycles
 SCF Done:  E(RHF) =  -228.919900558     A.U. after   10 cycles
 SCF Done:  E(RHF) =  -228.921567749     A.U. after   11 cycles
 SCF Done:  E(RHF) =  -228.921734272     A.U. after   10 cycles
 SCF Done:  E(RHF) =  -228.921763760     A.U. after    9 cycles
 SCF Done:  E(RHF) =  -228.921812229     A.U. after   10 cycles
 SCF Done:  E(RHF) =  -228.921814258     A.U. after    9 cycles
 Optimization completed.
    -- Stationary point found.

                         Standard orientation:
 ---------------------------------------------------------------------
 Center     Atomic      Atomic             Coordinates (Angstroms)
 Number     Number       Type             X           Y           Z
 ---------------------------------------------------------------------
      1          6           0       -0.429680    0.623579    0.069804
      2          6           0        0.429680   -0.623579    0.069804
      3          1           0       -0.068690    2.525587   -0.033356
      4          1           0        0.068690   -2.525587   -0.033356
      5          8           0        0.429680    1.722518   -0.077625
      6          8           0       -0.429680   -1.722518   -0.077625
      7          1           0       -1.131666    0.558761   -0.756915
      8          1           0       -1.001184    0.682361    0.992446
      9          1           0        1.131666   -0.558761   -0.756915
     10          1           0        1.001184   -0.682361    0.992446
 ---------------------------------------------------------------------

 The electronic state is 1-A.
 Alpha  occ. eigenvalues --  -20.55862 -20.55862 -11.26856 -11.26791  -1.37237
 Alpha  occ. eigenvalues --   -1.35899  -0.99828  -0.83297  -0.72566  -0.68069
 Alpha  occ. eigenvalues --   -0.65729  -0.58252  -0.58133  -0.53304  -0.47654
 Alpha  occ. eigenvalues --   -0.44865  -0.43505
 Alpha virt. eigenvalues --    0.21627   0.23632   0.28772   0.30990   0.31722
 Alpha virt. eigenvalues --    0.36513   0.38809   0.43297   0.46092   0.72927
 Alpha virt. eigenvalues --    0.79423   0.81817   0.84285   0.90784   0.95777

 Mulliken atomic charges:
              1
     1  C   -0.003858
     2  C   -0.003858
     3  H    0.443312
     4  H    0.443312
     5  O   -0.747527
     6  O   -0.747527
     7  H    0.158576
     8  H    0.149497
     9  H    0.158576
    10  H    0.149497
 Sum of Mulliken atomic charges =   0.00000

 Dipole moment (field-independent basis, Debye):
    X=              0.0000    Y=              0.0000    Z=              0.4653  Tot=              0.4653
 Quadrupole moment (field-independent basis, Debye-Ang):
   XX=            -26.3201   YY=            -18.2142   ZZ=            -25.2337
   XY=             -6.6558   XZ=              0.0000   YZ=              0.0000

 Normal termination of Gaussian 09 at Tue Sep 14 14:13:16 2010.
