 Gaussian 09, Revision A.02,
 Gaussian 09:  EM64L-G09RevA.02 11-Jun-2009

 --------------------------------------------------------------
 #M06L/6-31G** SP SCF=(qc,maxcycle=800) Guess=Indo MaxDisk=32GB
 --------------------------------------------------------------

 -------------------------------------------------------------------
 12-ethanediol Rotatable Bond SP Calculation on node9.bme.utexas.edu
 -------------------------------------------------------------------
 Symbolic Z-matrix:
 Charge =  0 Multiplicity = 1

                         Standard orientation:
 ---------------------------------------------------------------------
 Center     Atomic      Atomic             Coordinates (Angstroms)
 Number     Number       Type             X           Y           Z
 ---------------------------------------------------------------------
      1          6           0        0.054268    0.769013    0.621655
      2          6           0       -0.054268   -0.769013    0.621655
      3          1           0        0.006924    2.216437   -0.640567
      4          1           0       -0.006924   -2.216437   -0.640567
      5          8           0       -0.054268    1.272644   -0.675931
      6          8           0        0.054268   -1.272644   -0.675931
      7          1           0       -0.720851    1.175581    1.267840
      8          1           0        1.011870    1.058592    1.050247
      9          1           0        0.720851   -1.175581    1.267840
     10          1           0       -1.011870   -1.058592    1.050247
 ---------------------------------------------------------------------

 SCF Done:  E(RM06L) =  -230.203629554     a.u. after   12 cycles

 The electronic state is 1-A.
 Alpha  occ. eigenvalues --  -18.97073 -18.97073 -10.10165 -10.10154  -0.99962
 Alpha  occ. eigenvalues --   -0.98144  -0.69892  -0.56854  -0.49745  -0.44417
 Alpha  occ. eigenvalues --   -0.43180  -0.38177  -0.35877  -0.29497  -0.28406
 Alpha  occ. eigenvalues --   -0.23000  -0.20625
 Alpha virt. eigenvalues --    0.06422   0.11740   0.12033   0.12554   0.17332
 Alpha virt. eigenvalues --    0.17588   0.22070   0.22072   0.27823   0.54464
 Alpha virt. eigenvalues --    0.57222   0.57477   0.58317   0.64922   0.73396

 Mulliken atomic charges:
              1
     1  C    0.039868
     2  C    0.039868
     3  H    0.330689
     4  H    0.330689
     5  O   -0.555392
     6  O   -0.555392
     7  H    0.092243
     8  H    0.092592
     9  H    0.092243
    10  H    0.092592
 Sum of Mulliken atomic charges =   0.00000

 Dipole moment (field-independent basis, Debye):
    X=              0.0000    Y=              0.0000    Z=              2.0962  Tot=              2.0962
 Quadrupole moment (field-independent basis, Debye-Ang):
   XX=            -25.2099   YY=            -14.6785   ZZ=            -26.3717
   XY=              0.4887   XZ=              0.0000   YZ=              0.0000

 Normal termination of Gaussian 09 at Tue Sep 14 14:37:52 2010.
