 Gaussian 09, Revision A.02,
 Gaussian 09:  EM64L-G09RevA.02 11-Jun-2009

 --------------------------------------------------------------
 #M06L/6-31G** SP SCF=(qc,maxcycle=800) Guess=Indo MaxDisk=32GB
 --------------------------------------------------------------

 -------------------------------------------------------------------
 12-ethanediol Rotatable Bond SP Calculation on node9.bme.utexas.edu
 -------------------------------------------------------------------
 Symbolic Z-matrix:
 Charge =  0 Multiplicity = 1

                         Standard orientation:
 ---------------------------------------------------------------------
 Center     Atomic      Atomic             Coordinates (Angstroms)
 Number     Number       Type             X           Y           Z
 ---------------------------------------------------------------------
      1          6           0       -0.363277    0.670043    0.385937
      2          6           0        0.363277   -0.670043    0.385937
      3          1           0       -0.129263    2.381647   -0.496813
      4          1           0        0.129263   -2.381647   -0.496813
      5          8           0        0.363277    1.578795   -0.401999
      6          8           0       -0.363277   -1.578795   -0.401999
      7          1           0       -1.363434    0.515336   -0.004788
      8          1           0       -0.450048    1.048725    1.401970
      9          1           0        1.363434   -0.515336   -0.004788
     10          1           0        0.450048   -1.048725    1.401970
 ---------------------------------------------------------------------

 SCF Done:  E(RM06L) =  -230.212359645     a.u. after   10 cycles

 The electronic state is 1-A.
 Alpha  occ. eigenvalues --  -18.97434 -18.97434 -10.09913 -10.09900  -0.99758
 Alpha  occ. eigenvalues --   -0.98575  -0.70099  -0.56994  -0.49207  -0.47338
 Alpha  occ. eigenvalues --   -0.39727  -0.37956  -0.37284  -0.31027  -0.28136
 Alpha  occ. eigenvalues --   -0.22753  -0.21905
 Alpha virt. eigenvalues --    0.08325   0.08937   0.13999   0.14756   0.15380
 Alpha virt. eigenvalues --    0.17754   0.20730   0.23010   0.25307   0.54576
 Alpha virt. eigenvalues --    0.54839   0.56339   0.61827   0.65621   0.71468

 Mulliken atomic charges:
              1
     1  C    0.034411
     2  C    0.034411
     3  H    0.330748
     4  H    0.330748
     5  O   -0.581270
     6  O   -0.581270
     7  H    0.124600
     8  H    0.091512
     9  H    0.124600
    10  H    0.091512
 Sum of Mulliken atomic charges =   0.00000

 Dipole moment (field-independent basis, Debye):
    X=              0.0000    Y=              0.0000    Z=              0.9388  Tot=              0.9388
 Quadrupole moment (field-independent basis, Debye-Ang):
   XX=            -25.4502   YY=            -17.3201   ZZ=            -25.2485
   XY=             -5.2643   XZ=              0.0000   YZ=              0.0000

 Normal termination of Gaussian 09 at Tue Sep 14 15:05:41 2010.
