 Gaussian 09, Revision A.02,
 Gaussian 09:  EM64L-G09RevA.02 11-Jun-2009

 --------------------------------------------------------------
 #M06L/6-31G** SP SCF=(qc,maxcycle=800) Guess=Indo MaxDisk=32GB
 --------------------------------------------------------------

 -------------------------------------------------------------------
 12-ethanediol Rotatable Bond SP Calculation on node9.bme.utexas.edu
 -------------------------------------------------------------------
 Symbolic Z-matrix:
 Charge =  0 Multiplicity = 1

                         Standard orientation:
 ---------------------------------------------------------------------
 Center     Atomic      Atomic             Coordinates (Angstroms)
 Number     Number       Type             X           Y           Z
 ---------------------------------------------------------------------
      1          6           0        0.427811    0.625562    0.095959
      2          6           0       -0.427811   -0.625562    0.095959
      3          1           0        0.065507    2.524830   -0.051274
      4          1           0       -0.065507   -2.524830   -0.051274
      5          8           0       -0.427811    1.719234   -0.106113
      6          8           0        0.427811   -1.719234   -0.106113
      7          1           0        0.972238    0.710963    1.032739
      8          1           0        1.153262    0.542060   -0.708313
      9          1           0       -0.972238   -0.710963    1.032739
     10          1           0       -1.153262   -0.542060   -0.708313
 ---------------------------------------------------------------------

 SCF Done:  E(RM06L) =  -230.216152006     a.u. after   10 cycles

 The electronic state is 1-A.
 Alpha  occ. eigenvalues --  -18.97784 -18.97783 -10.09835 -10.09820  -1.00016
 Alpha  occ. eigenvalues --   -0.99031  -0.70155  -0.56939  -0.49905  -0.45605
 Alpha  occ. eigenvalues --   -0.42701  -0.37883  -0.35814  -0.31308  -0.28338
 Alpha  occ. eigenvalues --   -0.22631  -0.22592
 Alpha virt. eigenvalues --    0.07032   0.10056   0.13946   0.14819   0.16134
 Alpha virt. eigenvalues --    0.18305   0.20947   0.22712   0.25321   0.52214
 Alpha virt. eigenvalues --    0.57271   0.57362   0.59987   0.65020   0.71357

 Mulliken atomic charges:
              1
     1  C    0.036072
     2  C    0.036072
     3  H    0.334495
     4  H    0.334495
     5  O   -0.584471
     6  O   -0.584471
     7  H    0.102024
     8  H    0.111881
     9  H    0.102024
    10  H    0.111881
 Sum of Mulliken atomic charges =   0.00000

 Dipole moment (field-independent basis, Debye):
    X=              0.0000    Y=              0.0000    Z=              0.5146  Tot=              0.5146
 Quadrupole moment (field-independent basis, Debye-Ang):
   XX=            -26.0757   YY=            -17.2655   ZZ=            -25.0616
   XY=              5.7866   XZ=              0.0000   YZ=              0.0000

 Normal termination of Gaussian 09 at Tue Sep 14 14:12:40 2010.
