 Gaussian 09, Revision A.02,
 Gaussian 09:  EM64L-G09RevA.02 11-Jun-2009

 ----------------------------------
 #HF/6-31G* Opt=ModRed MaxDisk=32GB
 ----------------------------------

 -----------------------------------------------------------------
 12-ethanediol Rotatable Bond Optimization on node9.bme.utexas.edu
 -----------------------------------------------------------------
 Symbolic Z-matrix:
 Charge =  0 Multiplicity = 1

 SCF Done:  E(RHF) =  -228.881640800     A.U. after   12 cycles
 SCF Done:  E(RHF) =  -228.891413598     A.U. after   12 cycles
 SCF Done:  E(RHF) =  -228.903097078     A.U. after   10 cycles
 SCF Done:  E(RHF) =  -228.907000094     A.U. after   12 cycles
 SCF Done:  E(RHF) =  -228.907316061     A.U. after   10 cycles
 SCF Done:  E(RHF) =  -228.907327051     A.U. after    9 cycles
 SCF Done:  E(RHF) =  -228.907329639     A.U. after    8 cycles
 SCF Done:  E(RHF) =  -228.907331301     A.U. after    8 cycles
 SCF Done:  E(RHF) =  -228.907333007     A.U. after    9 cycles
 SCF Done:  E(RHF) =  -228.907333239     A.U. after    8 cycles
 Optimization completed.
    -- Stationary point found.

                         Standard orientation:
 ---------------------------------------------------------------------
 Center     Atomic      Atomic             Coordinates (Angstroms)
 Number     Number       Type             X           Y           Z
 ---------------------------------------------------------------------
      1          6           0       -0.074320    0.765840    0.618886
      2          6           0        0.074320   -0.765840    0.618886
      3          1           0       -0.010458    2.217283   -0.638982
      4          1           0        0.010458   -2.217283   -0.638982
      5          8           0        0.074320    1.275260   -0.672496
      6          8           0       -0.074320   -1.275260   -0.672496
      7          1           0       -1.057653    1.028348    1.004854
      8          1           0        0.660847    1.188323    1.300778
      9          1           0        1.057653   -1.028348    1.004854
     10          1           0       -0.660847   -1.188323    1.300778
 ---------------------------------------------------------------------

 The electronic state is 1-A.
 Alpha  occ. eigenvalues --  -20.54957 -20.54957 -11.27263 -11.27206  -1.37120
 Alpha  occ. eigenvalues --   -1.34656  -0.99574  -0.83020  -0.72617  -0.67001
 Alpha  occ. eigenvalues --   -0.64774  -0.59351  -0.58013  -0.51015  -0.47689
 Alpha  occ. eigenvalues --   -0.45378  -0.41482
 Alpha virt. eigenvalues --    0.21031   0.25447   0.26835   0.28585   0.33129
 Alpha virt. eigenvalues --    0.36119   0.38733   0.42151   0.49363   0.76379
 Alpha virt. eigenvalues --    0.78071   0.80926   0.83599   0.90777   0.95842

 Mulliken atomic charges:
              1
     1  C   -0.004174
     2  C   -0.004174
     3  H    0.437334
     4  H    0.437334
     5  O   -0.711866
     6  O   -0.711866
     7  H    0.139846
     8  H    0.138859
     9  H    0.139846
    10  H    0.138859
 Sum of Mulliken atomic charges =   0.00000

 Dipole moment (field-independent basis, Debye):
    X=              0.0000    Y=              0.0000    Z=              2.7205  Tot=              2.7205
 Quadrupole moment (field-independent basis, Debye-Ang):
   XX=            -25.4365   YY=            -14.7754   ZZ=            -26.7102
   XY=             -0.8189   XZ=              0.0000   YZ=              0.0000

 Normal termination of Gaussian 09 at Tue Sep 14 14:38:36 2010.
