 Gaussian 09, Revision A.02,
 Gaussian 09:  EM64L-G09RevA.02 11-Jun-2009

 --------------------------------------------------------------
 #M06L/6-31G** SP SCF=(qc,maxcycle=800) Guess=Indo MaxDisk=32GB
 --------------------------------------------------------------

 -------------------------------------------------------------------
 12-ethanediol Rotatable Bond SP Calculation on node9.bme.utexas.edu
 -------------------------------------------------------------------
 Symbolic Z-matrix:
 Charge =  0 Multiplicity = 1

                         Standard orientation:
 ---------------------------------------------------------------------
 Center     Atomic      Atomic             Coordinates (Angstroms)
 Number     Number       Type             X           Y           Z
 ---------------------------------------------------------------------
      1          6           0        0.403141    0.647792    0.260116
      2          6           0       -0.403141   -0.647792    0.260116
      3          1           0        0.072160    2.484222   -0.264829
      4          1           0       -0.072160   -2.484222   -0.264829
      5          8           0       -0.403141    1.665751   -0.275974
      6          8           0        0.403141   -1.665751   -0.275974
      7          1           0        0.730658    0.904314    1.264420
      8          1           0        1.284821    0.489869   -0.352497
      9          1           0       -0.730658   -0.904314    1.264420
     10          1           0       -1.284821   -0.489869   -0.352497
 ---------------------------------------------------------------------

 SCF Done:  E(RM06L) =  -230.212459017     a.u. after   10 cycles

 The electronic state is 1-A.
 Alpha  occ. eigenvalues --  -18.97599 -18.97599 -10.09853 -10.09840  -0.99845
 Alpha  occ. eigenvalues --   -0.98799  -0.69976  -0.56998  -0.49482  -0.46826
 Alpha  occ. eigenvalues --   -0.40677  -0.37885  -0.36625  -0.31143  -0.28271
 Alpha  occ. eigenvalues --   -0.22705  -0.22088
 Alpha virt. eigenvalues --    0.07575   0.09302   0.13835   0.15400   0.15710
 Alpha virt. eigenvalues --    0.17325   0.20647   0.24483   0.25248   0.54150
 Alpha virt. eigenvalues --    0.55928   0.56021   0.62701   0.63097   0.74002

 Mulliken atomic charges:
              1
     1  C    0.030756
     2  C    0.030756
     3  H    0.331901
     4  H    0.331901
     5  O   -0.584113
     6  O   -0.584113
     7  H    0.096859
     8  H    0.124598
     9  H    0.096859
    10  H    0.124598
 Sum of Mulliken atomic charges =   0.00000

 Dipole moment (field-independent basis, Debye):
    X=              0.0000    Y=              0.0000    Z=              0.8983  Tot=              0.8983
 Quadrupole moment (field-independent basis, Debye-Ang):
   XX=            -25.8338   YY=            -17.0733   ZZ=            -25.2494
   XY=              5.4231   XZ=              0.0000   YZ=              0.0000

 Normal termination of Gaussian 09 at Tue Sep 14 14:07:12 2010.
