 Gaussian 09, Revision A.02,
 Gaussian 09:  EM64L-G09RevA.02 11-Jun-2009

 ----------------------------------
 #HF/6-31G* Opt=ModRed MaxDisk=32GB
 ----------------------------------

 -----------------------------------------------------------------
 12-ethanediol Rotatable Bond Optimization on node8.bme.utexas.edu
 -----------------------------------------------------------------
 Symbolic Z-matrix:
 Charge =  0 Multiplicity = 1

 SCF Done:  E(RHF) =  -228.897167711     A.U. after   11 cycles
 SCF Done:  E(RHF) =  -228.905889753     A.U. after   10 cycles
 SCF Done:  E(RHF) =  -228.913695758     A.U. after   10 cycles
 SCF Done:  E(RHF) =  -228.916589592     A.U. after   11 cycles
 SCF Done:  E(RHF) =  -228.916721626     A.U. after    9 cycles
 SCF Done:  E(RHF) =  -228.916743107     A.U. after    9 cycles
 SCF Done:  E(RHF) =  -228.916768835     A.U. after   10 cycles
 SCF Done:  E(RHF) =  -228.916783682     A.U. after   10 cycles
 Optimization completed.
    -- Stationary point found.

                         Standard orientation:
 ---------------------------------------------------------------------
 Center     Atomic      Atomic             Coordinates (Angstroms)
 Number     Number       Type             X           Y           Z
 ---------------------------------------------------------------------
      1          6           0        0.354013    0.673872    0.407494
      2          6           0       -0.354013   -0.673872    0.407494
      3          1           0        0.143069    2.355805   -0.536582
      4          1           0       -0.143069   -2.355805   -0.536582
      5          8           0       -0.354013    1.558163   -0.423555
      6          8           0        0.354013   -1.558163   -0.423555
      7          1           0        0.393872    1.071071    1.419614
      8          1           0        1.371302    0.526550    0.060448
      9          1           0       -0.393872   -1.071071    1.419614
     10          1           0       -1.371302   -0.526550    0.060448
 ---------------------------------------------------------------------

 The electronic state is 1-A.
 Alpha  occ. eigenvalues --  -20.55441 -20.55441 -11.26945 -11.26883  -1.36919
 Alpha  occ. eigenvalues --   -1.35307  -0.99790  -0.83280  -0.71863  -0.70085
 Alpha  occ. eigenvalues --   -0.61957  -0.59437  -0.58533  -0.52718  -0.47386
 Alpha  occ. eigenvalues --   -0.44615  -0.43442
 Alpha virt. eigenvalues --    0.22887   0.22978   0.28954   0.31013   0.31687
 Alpha virt. eigenvalues --    0.35297   0.39327   0.41119   0.45021   0.75608
 Alpha virt. eigenvalues --    0.80383   0.81558   0.85288   0.88029   0.95471

 Mulliken atomic charges:
              1
     1  C   -0.009167
     2  C   -0.009167
     3  H    0.439473
     4  H    0.439473
     5  O   -0.741858
     6  O   -0.741858
     7  H    0.139433
     8  H    0.172120
     9  H    0.139433
    10  H    0.172120
 Sum of Mulliken atomic charges =   0.00000

 Dipole moment (field-independent basis, Debye):
    X=              0.0000    Y=              0.0000    Z=              1.3165  Tot=              1.3165
 Quadrupole moment (field-independent basis, Debye-Ang):
   XX=            -25.5968   YY=            -17.9890   ZZ=            -25.4496
   XY=              5.8997   XZ=              0.0000   YZ=              0.0000

 Normal termination of Gaussian 09 at Tue Sep 14 13:47:02 2010.
